Created by LiHVIdata.py

26224 atoms
2 atom types

0.000000 66.295326 xlo xhi
0.000000 66.295326 ylo yhi
-100.000000 200.000000 zlo zhi

Masses

1 6.941000
2 1.000000

Atoms

1 1 3.000000 0 0.000000 1.16939927015 1.16939927015 1.16939927015 
2 2 0.000000 1 0.370424 1.16939927015 1.16939927015 1.16939927015 
3 2 0.000000 -1 0.370424 1.16939927015 1.16939927015 1.16939927015 
4 1 3.000000 0 0.000000 3.37924346197 3.37924346197 1.16939927015 
5 2 0.000000 1 0.370424 3.37924346197 3.37924346197 1.16939927015 
6 2 0.000000 -1 0.370424 3.37924346197 3.37924346197 1.16939927015 
7 2 0.000000 -1 1.587532 3.37924346197 1.16939927015 1.16939927015 
8 2 0.000000 1 1.587532 1.16939927015 3.37924346197 1.16939927015 
9 1 3.000000 0 0.000000 5.5890876538 1.16939927015 1.16939927015 
10 2 0.000000 1 0.370424 5.5890876538 1.16939927015 1.16939927015 
11 2 0.000000 -1 0.370424 5.5890876538 1.16939927015 1.16939927015 
12 1 3.000000 0 0.000000 7.79893184562 3.37924346197 1.16939927015 
13 2 0.000000 1 0.370424 7.79893184562 3.37924346197 1.16939927015 
14 2 0.000000 -1 0.370424 7.79893184562 3.37924346197 1.16939927015 
15 2 0.000000 1 1.587532 7.79893184562 1.16939927015 1.16939927015 
16 2 0.000000 -1 1.587532 5.5890876538 3.37924346197 1.16939927015 
17 1 3.000000 0 0.000000 10.0087760374 1.16939927015 1.16939927015 
18 2 0.000000 1 0.370424 10.0087760374 1.16939927015 1.16939927015 
19 2 0.000000 -1 0.370424 10.0087760374 1.16939927015 1.16939927015 
20 1 3.000000 0 0.000000 12.2186202293 3.37924346197 1.16939927015 
21 2 0.000000 1 0.370424 12.2186202293 3.37924346197 1.16939927015 
22 2 0.000000 -1 0.370424 12.2186202293 3.37924346197 1.16939927015 
23 2 0.000000 -1 1.587532 12.2186202293 1.16939927015 1.16939927015 
24 2 0.000000 1 1.587532 10.0087760374 3.37924346197 1.16939927015 
25 1 3.000000 0 0.000000 14.4284644211 1.16939927015 1.16939927015 
26 2 0.000000 1 0.370424 14.4284644211 1.16939927015 1.16939927015 
27 2 0.000000 -1 0.370424 14.4284644211 1.16939927015 1.16939927015 
28 1 3.000000 0 0.000000 16.6383086129 3.37924346197 1.16939927015 
29 2 0.000000 1 0.370424 16.6383086129 3.37924346197 1.16939927015 
30 2 0.000000 -1 0.370424 16.6383086129 3.37924346197 1.16939927015 
31 2 0.000000 1 1.587532 16.6383086129 1.16939927015 1.16939927015 
32 2 0.000000 -1 1.587532 14.4284644211 3.37924346197 1.16939927015 
33 1 3.000000 0 0.000000 18.8481528047 1.16939927015 1.16939927015 
34 2 0.000000 1 0.370424 18.8481528047 1.16939927015 1.16939927015 
35 2 0.000000 -1 0.370424 18.8481528047 1.16939927015 1.16939927015 
36 1 3.000000 0 0.000000 21.0579969966 3.37924346197 1.16939927015 
37 2 0.000000 1 0.370424 21.0579969966 3.37924346197 1.16939927015 
38 2 0.000000 -1 0.370424 21.0579969966 3.37924346197 1.16939927015 
39 2 0.000000 -1 1.587532 21.0579969966 1.16939927015 1.16939927015 
40 2 0.000000 1 1.587532 18.8481528047 3.37924346197 1.16939927015 
41 1 3.000000 0 0.000000 23.2678411884 1.16939927015 1.16939927015 
42 2 0.000000 1 0.370424 23.2678411884 1.16939927015 1.16939927015 
43 2 0.000000 -1 0.370424 23.2678411884 1.16939927015 1.16939927015 
44 1 3.000000 0 0.000000 25.4776853802 3.37924346197 1.16939927015 
45 2 0.000000 1 0.370424 25.4776853802 3.37924346197 1.16939927015 
46 2 0.000000 -1 0.370424 25.4776853802 3.37924346197 1.16939927015 
47 2 0.000000 -1 1.587532 25.4776853802 1.16939927015 1.16939927015 
48 2 0.000000 1 1.587532 23.2678411884 3.37924346197 1.16939927015 
49 1 3.000000 0 0.000000 27.687529572 1.16939927015 1.16939927015 
50 2 0.000000 1 0.370424 27.687529572 1.16939927015 1.16939927015 
51 2 0.000000 -1 0.370424 27.687529572 1.16939927015 1.16939927015 
52 1 3.000000 0 0.000000 29.8973737639 3.37924346197 1.16939927015 
53 2 0.000000 1 0.370424 29.8973737639 3.37924346197 1.16939927015 
54 2 0.000000 -1 0.370424 29.8973737639 3.37924346197 1.16939927015 
55 2 0.000000 -1 1.587532 29.8973737639 1.16939927015 1.16939927015 
56 2 0.000000 1 1.587532 27.687529572 3.37924346197 1.16939927015 
57 1 3.000000 0 0.000000 32.1072179557 1.16939927015 1.16939927015 
58 2 0.000000 1 0.370424 32.1072179557 1.16939927015 1.16939927015 
59 2 0.000000 -1 0.370424 32.1072179557 1.16939927015 1.16939927015 
60 1 3.000000 0 0.000000 34.3170621475 3.37924346197 1.16939927015 
61 2 0.000000 1 0.370424 34.3170621475 3.37924346197 1.16939927015 
62 2 0.000000 -1 0.370424 34.3170621475 3.37924346197 1.16939927015 
63 2 0.000000 1 1.587532 34.3170621475 1.16939927015 1.16939927015 
64 2 0.000000 -1 1.587532 32.1072179557 3.37924346197 1.16939927015 
65 1 3.000000 0 0.000000 36.5269063393 1.16939927015 1.16939927015 
66 2 0.000000 1 0.370424 36.5269063393 1.16939927015 1.16939927015 
67 2 0.000000 -1 0.370424 36.5269063393 1.16939927015 1.16939927015 
68 1 3.000000 0 0.000000 38.7367505312 3.37924346197 1.16939927015 
69 2 0.000000 1 0.370424 38.7367505312 3.37924346197 1.16939927015 
70 2 0.000000 -1 0.370424 38.7367505312 3.37924346197 1.16939927015 
71 2 0.000000 1 1.587532 38.7367505312 1.16939927015 1.16939927015 
72 2 0.000000 -1 1.587532 36.5269063393 3.37924346197 1.16939927015 
73 1 3.000000 0 0.000000 40.946594723 1.16939927015 1.16939927015 
74 2 0.000000 1 0.370424 40.946594723 1.16939927015 1.16939927015 
75 2 0.000000 -1 0.370424 40.946594723 1.16939927015 1.16939927015 
76 1 3.000000 0 0.000000 43.1564389148 3.37924346197 1.16939927015 
77 2 0.000000 1 0.370424 43.1564389148 3.37924346197 1.16939927015 
78 2 0.000000 -1 0.370424 43.1564389148 3.37924346197 1.16939927015 
79 2 0.000000 -1 1.587532 43.1564389148 1.16939927015 1.16939927015 
80 2 0.000000 1 1.587532 40.946594723 3.37924346197 1.16939927015 
81 1 3.000000 0 0.000000 45.3662831066 1.16939927015 1.16939927015 
82 2 0.000000 1 0.370424 45.3662831066 1.16939927015 1.16939927015 
83 2 0.000000 -1 0.370424 45.3662831066 1.16939927015 1.16939927015 
84 1 3.000000 0 0.000000 47.5761272985 3.37924346197 1.16939927015 
85 2 0.000000 1 0.370424 47.5761272985 3.37924346197 1.16939927015 
86 2 0.000000 -1 0.370424 47.5761272985 3.37924346197 1.16939927015 
87 2 0.000000 1 1.587532 47.5761272985 1.16939927015 1.16939927015 
88 2 0.000000 -1 1.587532 45.3662831066 3.37924346197 1.16939927015 
89 1 3.000000 0 0.000000 49.7859714903 1.16939927015 1.16939927015 
90 2 0.000000 1 0.370424 49.7859714903 1.16939927015 1.16939927015 
91 2 0.000000 -1 0.370424 49.7859714903 1.16939927015 1.16939927015 
92 1 3.000000 0 0.000000 51.9958156821 3.37924346197 1.16939927015 
93 2 0.000000 1 0.370424 51.9958156821 3.37924346197 1.16939927015 
94 2 0.000000 -1 0.370424 51.9958156821 3.37924346197 1.16939927015 
95 2 0.000000 -1 1.587532 51.9958156821 1.16939927015 1.16939927015 
96 2 0.000000 1 1.587532 49.7859714903 3.37924346197 1.16939927015 
97 1 3.000000 0 0.000000 54.2056598739 1.16939927015 1.16939927015 
98 2 0.000000 1 0.370424 54.2056598739 1.16939927015 1.16939927015 
99 2 0.000000 -1 0.370424 54.2056598739 1.16939927015 1.16939927015 
100 1 3.000000 0 0.000000 56.4155040657 3.37924346197 1.16939927015 
101 2 0.000000 1 0.370424 56.4155040657 3.37924346197 1.16939927015 
102 2 0.000000 -1 0.370424 56.4155040657 3.37924346197 1.16939927015 
103 2 0.000000 -1 1.587532 56.4155040657 1.16939927015 1.16939927015 
104 2 0.000000 1 1.587532 54.2056598739 3.37924346197 1.16939927015 
105 1 3.000000 0 0.000000 58.6253482576 1.16939927015 1.16939927015 
106 2 0.000000 1 0.370424 58.6253482576 1.16939927015 1.16939927015 
107 2 0.000000 -1 0.370424 58.6253482576 1.16939927015 1.16939927015 
108 1 3.000000 0 0.000000 60.8351924494 3.37924346197 1.16939927015 
109 2 0.000000 1 0.370424 60.8351924494 3.37924346197 1.16939927015 
110 2 0.000000 -1 0.370424 60.8351924494 3.37924346197 1.16939927015 
111 2 0.000000 -1 1.587532 60.8351924494 1.16939927015 1.16939927015 
112 2 0.000000 1 1.587532 58.6253482576 3.37924346197 1.16939927015 
113 1 3.000000 0 0.000000 63.0450366412 1.16939927015 1.16939927015 
114 2 0.000000 1 0.370424 63.0450366412 1.16939927015 1.16939927015 
115 2 0.000000 -1 0.370424 63.0450366412 1.16939927015 1.16939927015 
116 1 3.000000 0 0.000000 65.254880833 3.37924346197 1.16939927015 
117 2 0.000000 1 0.370424 65.254880833 3.37924346197 1.16939927015 
118 2 0.000000 -1 0.370424 65.254880833 3.37924346197 1.16939927015 
119 2 0.000000 -1 1.587532 65.254880833 1.16939927015 1.16939927015 
120 2 0.000000 1 1.587532 63.0450366412 3.37924346197 1.16939927015 
121 1 3.000000 0 0.000000 1.16939927015 5.5890876538 1.16939927015 
122 2 0.000000 1 0.370424 1.16939927015 5.5890876538 1.16939927015 
123 2 0.000000 -1 0.370424 1.16939927015 5.5890876538 1.16939927015 
124 1 3.000000 0 0.000000 3.37924346197 7.79893184562 1.16939927015 
125 2 0.000000 1 0.370424 3.37924346197 7.79893184562 1.16939927015 
126 2 0.000000 -1 0.370424 3.37924346197 7.79893184562 1.16939927015 
127 2 0.000000 -1 1.587532 3.37924346197 5.5890876538 1.16939927015 
128 2 0.000000 1 1.587532 1.16939927015 7.79893184562 1.16939927015 
129 1 3.000000 0 0.000000 5.5890876538 5.5890876538 1.16939927015 
130 2 0.000000 1 0.370424 5.5890876538 5.5890876538 1.16939927015 
131 2 0.000000 -1 0.370424 5.5890876538 5.5890876538 1.16939927015 
132 1 3.000000 0 0.000000 7.79893184562 7.79893184562 1.16939927015 
133 2 0.000000 1 0.370424 7.79893184562 7.79893184562 1.16939927015 
134 2 0.000000 -1 0.370424 7.79893184562 7.79893184562 1.16939927015 
135 2 0.000000 1 1.587532 7.79893184562 5.5890876538 1.16939927015 
136 2 0.000000 -1 1.587532 5.5890876538 7.79893184562 1.16939927015 
137 1 3.000000 0 0.000000 10.0087760374 5.5890876538 1.16939927015 
138 2 0.000000 1 0.370424 10.0087760374 5.5890876538 1.16939927015 
139 2 0.000000 -1 0.370424 10.0087760374 5.5890876538 1.16939927015 
140 1 3.000000 0 0.000000 12.2186202293 7.79893184562 1.16939927015 
141 2 0.000000 1 0.370424 12.2186202293 7.79893184562 1.16939927015 
142 2 0.000000 -1 0.370424 12.2186202293 7.79893184562 1.16939927015 
143 2 0.000000 -1 1.587532 12.2186202293 5.5890876538 1.16939927015 
144 2 0.000000 1 1.587532 10.0087760374 7.79893184562 1.16939927015 
145 1 3.000000 0 0.000000 14.4284644211 5.5890876538 1.16939927015 
146 2 0.000000 1 0.370424 14.4284644211 5.5890876538 1.16939927015 
147 2 0.000000 -1 0.370424 14.4284644211 5.5890876538 1.16939927015 
148 1 3.000000 0 0.000000 16.6383086129 7.79893184562 1.16939927015 
149 2 0.000000 1 0.370424 16.6383086129 7.79893184562 1.16939927015 
150 2 0.000000 -1 0.370424 16.6383086129 7.79893184562 1.16939927015 
151 2 0.000000 1 1.587532 16.6383086129 5.5890876538 1.16939927015 
152 2 0.000000 -1 1.587532 14.4284644211 7.79893184562 1.16939927015 
153 1 3.000000 0 0.000000 18.8481528047 5.5890876538 1.16939927015 
154 2 0.000000 1 0.370424 18.8481528047 5.5890876538 1.16939927015 
155 2 0.000000 -1 0.370424 18.8481528047 5.5890876538 1.16939927015 
156 1 3.000000 0 0.000000 21.0579969966 7.79893184562 1.16939927015 
157 2 0.000000 1 0.370424 21.0579969966 7.79893184562 1.16939927015 
158 2 0.000000 -1 0.370424 21.0579969966 7.79893184562 1.16939927015 
159 2 0.000000 1 1.587532 21.0579969966 5.5890876538 1.16939927015 
160 2 0.000000 -1 1.587532 18.8481528047 7.79893184562 1.16939927015 
161 1 3.000000 0 0.000000 23.2678411884 5.5890876538 1.16939927015 
162 2 0.000000 1 0.370424 23.2678411884 5.5890876538 1.16939927015 
163 2 0.000000 -1 0.370424 23.2678411884 5.5890876538 1.16939927015 
164 1 3.000000 0 0.000000 25.4776853802 7.79893184562 1.16939927015 
165 2 0.000000 1 0.370424 25.4776853802 7.79893184562 1.16939927015 
166 2 0.000000 -1 0.370424 25.4776853802 7.79893184562 1.16939927015 
167 2 0.000000 -1 1.587532 25.4776853802 5.5890876538 1.16939927015 
168 2 0.000000 1 1.587532 23.2678411884 7.79893184562 1.16939927015 
169 1 3.000000 0 0.000000 27.687529572 5.5890876538 1.16939927015 
170 2 0.000000 1 0.370424 27.687529572 5.5890876538 1.16939927015 
171 2 0.000000 -1 0.370424 27.687529572 5.5890876538 1.16939927015 
172 1 3.000000 0 0.000000 29.8973737639 7.79893184562 1.16939927015 
173 2 0.000000 1 0.370424 29.8973737639 7.79893184562 1.16939927015 
174 2 0.000000 -1 0.370424 29.8973737639 7.79893184562 1.16939927015 
175 2 0.000000 1 1.587532 29.8973737639 5.5890876538 1.16939927015 
176 2 0.000000 -1 1.587532 27.687529572 7.79893184562 1.16939927015 
177 1 3.000000 0 0.000000 32.1072179557 5.5890876538 1.16939927015 
178 2 0.000000 1 0.370424 32.1072179557 5.5890876538 1.16939927015 
179 2 0.000000 -1 0.370424 32.1072179557 5.5890876538 1.16939927015 
180 1 3.000000 0 0.000000 34.3170621475 7.79893184562 1.16939927015 
181 2 0.000000 1 0.370424 34.3170621475 7.79893184562 1.16939927015 
182 2 0.000000 -1 0.370424 34.3170621475 7.79893184562 1.16939927015 
183 2 0.000000 1 1.587532 34.3170621475 5.5890876538 1.16939927015 
184 2 0.000000 -1 1.587532 32.1072179557 7.79893184562 1.16939927015 
185 1 3.000000 0 0.000000 36.5269063393 5.5890876538 1.16939927015 
186 2 0.000000 1 0.370424 36.5269063393 5.5890876538 1.16939927015 
187 2 0.000000 -1 0.370424 36.5269063393 5.5890876538 1.16939927015 
188 1 3.000000 0 0.000000 38.7367505312 7.79893184562 1.16939927015 
189 2 0.000000 1 0.370424 38.7367505312 7.79893184562 1.16939927015 
190 2 0.000000 -1 0.370424 38.7367505312 7.79893184562 1.16939927015 
191 2 0.000000 -1 1.587532 38.7367505312 5.5890876538 1.16939927015 
192 2 0.000000 1 1.587532 36.5269063393 7.79893184562 1.16939927015 
193 1 3.000000 0 0.000000 40.946594723 5.5890876538 1.16939927015 
194 2 0.000000 1 0.370424 40.946594723 5.5890876538 1.16939927015 
195 2 0.000000 -1 0.370424 40.946594723 5.5890876538 1.16939927015 
196 1 3.000000 0 0.000000 43.1564389148 7.79893184562 1.16939927015 
197 2 0.000000 1 0.370424 43.1564389148 7.79893184562 1.16939927015 
198 2 0.000000 -1 0.370424 43.1564389148 7.79893184562 1.16939927015 
199 2 0.000000 -1 1.587532 43.1564389148 5.5890876538 1.16939927015 
200 2 0.000000 1 1.587532 40.946594723 7.79893184562 1.16939927015 
201 1 3.000000 0 0.000000 45.3662831066 5.5890876538 1.16939927015 
202 2 0.000000 1 0.370424 45.3662831066 5.5890876538 1.16939927015 
203 2 0.000000 -1 0.370424 45.3662831066 5.5890876538 1.16939927015 
204 1 3.000000 0 0.000000 47.5761272985 7.79893184562 1.16939927015 
205 2 0.000000 1 0.370424 47.5761272985 7.79893184562 1.16939927015 
206 2 0.000000 -1 0.370424 47.5761272985 7.79893184562 1.16939927015 
207 2 0.000000 1 1.587532 47.5761272985 5.5890876538 1.16939927015 
208 2 0.000000 -1 1.587532 45.3662831066 7.79893184562 1.16939927015 
209 1 3.000000 0 0.000000 49.7859714903 5.5890876538 1.16939927015 
210 2 0.000000 1 0.370424 49.7859714903 5.5890876538 1.16939927015 
211 2 0.000000 -1 0.370424 49.7859714903 5.5890876538 1.16939927015 
212 1 3.000000 0 0.000000 51.9958156821 7.79893184562 1.16939927015 
213 2 0.000000 1 0.370424 51.9958156821 7.79893184562 1.16939927015 
214 2 0.000000 -1 0.370424 51.9958156821 7.79893184562 1.16939927015 
215 2 0.000000 1 1.587532 51.9958156821 5.5890876538 1.16939927015 
216 2 0.000000 -1 1.587532 49.7859714903 7.79893184562 1.16939927015 
217 1 3.000000 0 0.000000 54.2056598739 5.5890876538 1.16939927015 
218 2 0.000000 1 0.370424 54.2056598739 5.5890876538 1.16939927015 
219 2 0.000000 -1 0.370424 54.2056598739 5.5890876538 1.16939927015 
220 1 3.000000 0 0.000000 56.4155040657 7.79893184562 1.16939927015 
221 2 0.000000 1 0.370424 56.4155040657 7.79893184562 1.16939927015 
222 2 0.000000 -1 0.370424 56.4155040657 7.79893184562 1.16939927015 
223 2 0.000000 -1 1.587532 56.4155040657 5.5890876538 1.16939927015 
224 2 0.000000 1 1.587532 54.2056598739 7.79893184562 1.16939927015 
225 1 3.000000 0 0.000000 58.6253482576 5.5890876538 1.16939927015 
226 2 0.000000 1 0.370424 58.6253482576 5.5890876538 1.16939927015 
227 2 0.000000 -1 0.370424 58.6253482576 5.5890876538 1.16939927015 
228 1 3.000000 0 0.000000 60.8351924494 7.79893184562 1.16939927015 
229 2 0.000000 1 0.370424 60.8351924494 7.79893184562 1.16939927015 
230 2 0.000000 -1 0.370424 60.8351924494 7.79893184562 1.16939927015 
231 2 0.000000 -1 1.587532 60.8351924494 5.5890876538 1.16939927015 
232 2 0.000000 1 1.587532 58.6253482576 7.79893184562 1.16939927015 
233 1 3.000000 0 0.000000 63.0450366412 5.5890876538 1.16939927015 
234 2 0.000000 1 0.370424 63.0450366412 5.5890876538 1.16939927015 
235 2 0.000000 -1 0.370424 63.0450366412 5.5890876538 1.16939927015 
236 1 3.000000 0 0.000000 65.254880833 7.79893184562 1.16939927015 
237 2 0.000000 1 0.370424 65.254880833 7.79893184562 1.16939927015 
238 2 0.000000 -1 0.370424 65.254880833 7.79893184562 1.16939927015 
239 2 0.000000 1 1.587532 65.254880833 5.5890876538 1.16939927015 
240 2 0.000000 -1 1.587532 63.0450366412 7.79893184562 1.16939927015 
241 1 3.000000 0 0.000000 1.16939927015 10.0087760374 1.16939927015 
242 2 0.000000 1 0.370424 1.16939927015 10.0087760374 1.16939927015 
243 2 0.000000 -1 0.370424 1.16939927015 10.0087760374 1.16939927015 
244 1 3.000000 0 0.000000 3.37924346197 12.2186202293 1.16939927015 
245 2 0.000000 1 0.370424 3.37924346197 12.2186202293 1.16939927015 
246 2 0.000000 -1 0.370424 3.37924346197 12.2186202293 1.16939927015 
247 2 0.000000 -1 1.587532 3.37924346197 10.0087760374 1.16939927015 
248 2 0.000000 1 1.587532 1.16939927015 12.2186202293 1.16939927015 
249 1 3.000000 0 0.000000 5.5890876538 10.0087760374 1.16939927015 
250 2 0.000000 1 0.370424 5.5890876538 10.0087760374 1.16939927015 
251 2 0.000000 -1 0.370424 5.5890876538 10.0087760374 1.16939927015 
252 1 3.000000 0 0.000000 7.79893184562 12.2186202293 1.16939927015 
253 2 0.000000 1 0.370424 7.79893184562 12.2186202293 1.16939927015 
254 2 0.000000 -1 0.370424 7.79893184562 12.2186202293 1.16939927015 
255 2 0.000000 -1 1.587532 7.79893184562 10.0087760374 1.16939927015 
256 2 0.000000 1 1.587532 5.5890876538 12.2186202293 1.16939927015 
257 1 3.000000 0 0.000000 10.0087760374 10.0087760374 1.16939927015 
258 2 0.000000 1 0.370424 10.0087760374 10.0087760374 1.16939927015 
259 2 0.000000 -1 0.370424 10.0087760374 10.0087760374 1.16939927015 
260 1 3.000000 0 0.000000 12.2186202293 12.2186202293 1.16939927015 
261 2 0.000000 1 0.370424 12.2186202293 12.2186202293 1.16939927015 
262 2 0.000000 -1 0.370424 12.2186202293 12.2186202293 1.16939927015 
263 2 0.000000 -1 1.587532 12.2186202293 10.0087760374 1.16939927015 
264 2 0.000000 1 1.587532 10.0087760374 12.2186202293 1.16939927015 
265 1 3.000000 0 0.000000 14.4284644211 10.0087760374 1.16939927015 
266 2 0.000000 1 0.370424 14.4284644211 10.0087760374 1.16939927015 
267 2 0.000000 -1 0.370424 14.4284644211 10.0087760374 1.16939927015 
268 1 3.000000 0 0.000000 16.6383086129 12.2186202293 1.16939927015 
269 2 0.000000 1 0.370424 16.6383086129 12.2186202293 1.16939927015 
270 2 0.000000 -1 0.370424 16.6383086129 12.2186202293 1.16939927015 
271 2 0.000000 1 1.587532 16.6383086129 10.0087760374 1.16939927015 
272 2 0.000000 -1 1.587532 14.4284644211 12.2186202293 1.16939927015 
273 1 3.000000 0 0.000000 18.8481528047 10.0087760374 1.16939927015 
274 2 0.000000 1 0.370424 18.8481528047 10.0087760374 1.16939927015 
275 2 0.000000 -1 0.370424 18.8481528047 10.0087760374 1.16939927015 
276 1 3.000000 0 0.000000 21.0579969966 12.2186202293 1.16939927015 
277 2 0.000000 1 0.370424 21.0579969966 12.2186202293 1.16939927015 
278 2 0.000000 -1 0.370424 21.0579969966 12.2186202293 1.16939927015 
279 2 0.000000 1 1.587532 21.0579969966 10.0087760374 1.16939927015 
280 2 0.000000 -1 1.587532 18.8481528047 12.2186202293 1.16939927015 
281 1 3.000000 0 0.000000 23.2678411884 10.0087760374 1.16939927015 
282 2 0.000000 1 0.370424 23.2678411884 10.0087760374 1.16939927015 
283 2 0.000000 -1 0.370424 23.2678411884 10.0087760374 1.16939927015 
284 1 3.000000 0 0.000000 25.4776853802 12.2186202293 1.16939927015 
285 2 0.000000 1 0.370424 25.4776853802 12.2186202293 1.16939927015 
286 2 0.000000 -1 0.370424 25.4776853802 12.2186202293 1.16939927015 
287 2 0.000000 -1 1.587532 25.4776853802 10.0087760374 1.16939927015 
288 2 0.000000 1 1.587532 23.2678411884 12.2186202293 1.16939927015 
289 1 3.000000 0 0.000000 27.687529572 10.0087760374 1.16939927015 
290 2 0.000000 1 0.370424 27.687529572 10.0087760374 1.16939927015 
291 2 0.000000 -1 0.370424 27.687529572 10.0087760374 1.16939927015 
292 1 3.000000 0 0.000000 29.8973737639 12.2186202293 1.16939927015 
293 2 0.000000 1 0.370424 29.8973737639 12.2186202293 1.16939927015 
294 2 0.000000 -1 0.370424 29.8973737639 12.2186202293 1.16939927015 
295 2 0.000000 -1 1.587532 29.8973737639 10.0087760374 1.16939927015 
296 2 0.000000 1 1.587532 27.687529572 12.2186202293 1.16939927015 
297 1 3.000000 0 0.000000 32.1072179557 10.0087760374 1.16939927015 
298 2 0.000000 1 0.370424 32.1072179557 10.0087760374 1.16939927015 
299 2 0.000000 -1 0.370424 32.1072179557 10.0087760374 1.16939927015 
300 1 3.000000 0 0.000000 34.3170621475 12.2186202293 1.16939927015 
301 2 0.000000 1 0.370424 34.3170621475 12.2186202293 1.16939927015 
302 2 0.000000 -1 0.370424 34.3170621475 12.2186202293 1.16939927015 
303 2 0.000000 1 1.587532 34.3170621475 10.0087760374 1.16939927015 
304 2 0.000000 -1 1.587532 32.1072179557 12.2186202293 1.16939927015 
305 1 3.000000 0 0.000000 36.5269063393 10.0087760374 1.16939927015 
306 2 0.000000 1 0.370424 36.5269063393 10.0087760374 1.16939927015 
307 2 0.000000 -1 0.370424 36.5269063393 10.0087760374 1.16939927015 
308 1 3.000000 0 0.000000 38.7367505312 12.2186202293 1.16939927015 
309 2 0.000000 1 0.370424 38.7367505312 12.2186202293 1.16939927015 
310 2 0.000000 -1 0.370424 38.7367505312 12.2186202293 1.16939927015 
311 2 0.000000 -1 1.587532 38.7367505312 10.0087760374 1.16939927015 
312 2 0.000000 1 1.587532 36.5269063393 12.2186202293 1.16939927015 
313 1 3.000000 0 0.000000 40.946594723 10.0087760374 1.16939927015 
314 2 0.000000 1 0.370424 40.946594723 10.0087760374 1.16939927015 
315 2 0.000000 -1 0.370424 40.946594723 10.0087760374 1.16939927015 
316 1 3.000000 0 0.000000 43.1564389148 12.2186202293 1.16939927015 
317 2 0.000000 1 0.370424 43.1564389148 12.2186202293 1.16939927015 
318 2 0.000000 -1 0.370424 43.1564389148 12.2186202293 1.16939927015 
319 2 0.000000 1 1.587532 43.1564389148 10.0087760374 1.16939927015 
320 2 0.000000 -1 1.587532 40.946594723 12.2186202293 1.16939927015 
321 1 3.000000 0 0.000000 45.3662831066 10.0087760374 1.16939927015 
322 2 0.000000 1 0.370424 45.3662831066 10.0087760374 1.16939927015 
323 2 0.000000 -1 0.370424 45.3662831066 10.0087760374 1.16939927015 
324 1 3.000000 0 0.000000 47.5761272985 12.2186202293 1.16939927015 
325 2 0.000000 1 0.370424 47.5761272985 12.2186202293 1.16939927015 
326 2 0.000000 -1 0.370424 47.5761272985 12.2186202293 1.16939927015 
327 2 0.000000 1 1.587532 47.5761272985 10.0087760374 1.16939927015 
328 2 0.000000 -1 1.587532 45.3662831066 12.2186202293 1.16939927015 
329 1 3.000000 0 0.000000 49.7859714903 10.0087760374 1.16939927015 
330 2 0.000000 1 0.370424 49.7859714903 10.0087760374 1.16939927015 
331 2 0.000000 -1 0.370424 49.7859714903 10.0087760374 1.16939927015 
332 1 3.000000 0 0.000000 51.9958156821 12.2186202293 1.16939927015 
333 2 0.000000 1 0.370424 51.9958156821 12.2186202293 1.16939927015 
334 2 0.000000 -1 0.370424 51.9958156821 12.2186202293 1.16939927015 
335 2 0.000000 -1 1.587532 51.9958156821 10.0087760374 1.16939927015 
336 2 0.000000 1 1.587532 49.7859714903 12.2186202293 1.16939927015 
337 1 3.000000 0 0.000000 54.2056598739 10.0087760374 1.16939927015 
338 2 0.000000 1 0.370424 54.2056598739 10.0087760374 1.16939927015 
339 2 0.000000 -1 0.370424 54.2056598739 10.0087760374 1.16939927015 
340 1 3.000000 0 0.000000 56.4155040657 12.2186202293 1.16939927015 
341 2 0.000000 1 0.370424 56.4155040657 12.2186202293 1.16939927015 
342 2 0.000000 -1 0.370424 56.4155040657 12.2186202293 1.16939927015 
343 2 0.000000 1 1.587532 56.4155040657 10.0087760374 1.16939927015 
344 2 0.000000 -1 1.587532 54.2056598739 12.2186202293 1.16939927015 
345 1 3.000000 0 0.000000 58.6253482576 10.0087760374 1.16939927015 
346 2 0.000000 1 0.370424 58.6253482576 10.0087760374 1.16939927015 
347 2 0.000000 -1 0.370424 58.6253482576 10.0087760374 1.16939927015 
348 1 3.000000 0 0.000000 60.8351924494 12.2186202293 1.16939927015 
349 2 0.000000 1 0.370424 60.8351924494 12.2186202293 1.16939927015 
350 2 0.000000 -1 0.370424 60.8351924494 12.2186202293 1.16939927015 
351 2 0.000000 1 1.587532 60.8351924494 10.0087760374 1.16939927015 
352 2 0.000000 -1 1.587532 58.6253482576 12.2186202293 1.16939927015 
353 1 3.000000 0 0.000000 63.0450366412 10.0087760374 1.16939927015 
354 2 0.000000 1 0.370424 63.0450366412 10.0087760374 1.16939927015 
355 2 0.000000 -1 0.370424 63.0450366412 10.0087760374 1.16939927015 
356 1 3.000000 0 0.000000 65.254880833 12.2186202293 1.16939927015 
357 2 0.000000 1 0.370424 65.254880833 12.2186202293 1.16939927015 
358 2 0.000000 -1 0.370424 65.254880833 12.2186202293 1.16939927015 
359 2 0.000000 -1 1.587532 65.254880833 10.0087760374 1.16939927015 
360 2 0.000000 1 1.587532 63.0450366412 12.2186202293 1.16939927015 
361 1 3.000000 0 0.000000 1.16939927015 14.4284644211 1.16939927015 
362 2 0.000000 1 0.370424 1.16939927015 14.4284644211 1.16939927015 
363 2 0.000000 -1 0.370424 1.16939927015 14.4284644211 1.16939927015 
364 1 3.000000 0 0.000000 3.37924346197 16.6383086129 1.16939927015 
365 2 0.000000 1 0.370424 3.37924346197 16.6383086129 1.16939927015 
366 2 0.000000 -1 0.370424 3.37924346197 16.6383086129 1.16939927015 
367 2 0.000000 -1 1.587532 3.37924346197 14.4284644211 1.16939927015 
368 2 0.000000 1 1.587532 1.16939927015 16.6383086129 1.16939927015 
369 1 3.000000 0 0.000000 5.5890876538 14.4284644211 1.16939927015 
370 2 0.000000 1 0.370424 5.5890876538 14.4284644211 1.16939927015 
371 2 0.000000 -1 0.370424 5.5890876538 14.4284644211 1.16939927015 
372 1 3.000000 0 0.000000 7.79893184562 16.6383086129 1.16939927015 
373 2 0.000000 1 0.370424 7.79893184562 16.6383086129 1.16939927015 
374 2 0.000000 -1 0.370424 7.79893184562 16.6383086129 1.16939927015 
375 2 0.000000 1 1.587532 7.79893184562 14.4284644211 1.16939927015 
376 2 0.000000 -1 1.587532 5.5890876538 16.6383086129 1.16939927015 
377 1 3.000000 0 0.000000 10.0087760374 14.4284644211 1.16939927015 
378 2 0.000000 1 0.370424 10.0087760374 14.4284644211 1.16939927015 
379 2 0.000000 -1 0.370424 10.0087760374 14.4284644211 1.16939927015 
380 1 3.000000 0 0.000000 12.2186202293 16.6383086129 1.16939927015 
381 2 0.000000 1 0.370424 12.2186202293 16.6383086129 1.16939927015 
382 2 0.000000 -1 0.370424 12.2186202293 16.6383086129 1.16939927015 
383 2 0.000000 1 1.587532 12.2186202293 14.4284644211 1.16939927015 
384 2 0.000000 -1 1.587532 10.0087760374 16.6383086129 1.16939927015 
385 1 3.000000 0 0.000000 14.4284644211 14.4284644211 1.16939927015 
386 2 0.000000 1 0.370424 14.4284644211 14.4284644211 1.16939927015 
387 2 0.000000 -1 0.370424 14.4284644211 14.4284644211 1.16939927015 
388 1 3.000000 0 0.000000 16.6383086129 16.6383086129 1.16939927015 
389 2 0.000000 1 0.370424 16.6383086129 16.6383086129 1.16939927015 
390 2 0.000000 -1 0.370424 16.6383086129 16.6383086129 1.16939927015 
391 2 0.000000 1 1.587532 16.6383086129 14.4284644211 1.16939927015 
392 2 0.000000 -1 1.587532 14.4284644211 16.6383086129 1.16939927015 
393 1 3.000000 0 0.000000 18.8481528047 14.4284644211 1.16939927015 
394 2 0.000000 1 0.370424 18.8481528047 14.4284644211 1.16939927015 
395 2 0.000000 -1 0.370424 18.8481528047 14.4284644211 1.16939927015 
396 1 3.000000 0 0.000000 21.0579969966 16.6383086129 1.16939927015 
397 2 0.000000 1 0.370424 21.0579969966 16.6383086129 1.16939927015 
398 2 0.000000 -1 0.370424 21.0579969966 16.6383086129 1.16939927015 
399 2 0.000000 -1 1.587532 21.0579969966 14.4284644211 1.16939927015 
400 2 0.000000 1 1.587532 18.8481528047 16.6383086129 1.16939927015 
401 1 3.000000 0 0.000000 23.2678411884 14.4284644211 1.16939927015 
402 2 0.000000 1 0.370424 23.2678411884 14.4284644211 1.16939927015 
403 2 0.000000 -1 0.370424 23.2678411884 14.4284644211 1.16939927015 
404 1 3.000000 0 0.000000 25.4776853802 16.6383086129 1.16939927015 
405 2 0.000000 1 0.370424 25.4776853802 16.6383086129 1.16939927015 
406 2 0.000000 -1 0.370424 25.4776853802 16.6383086129 1.16939927015 
407 2 0.000000 -1 1.587532 25.4776853802 14.4284644211 1.16939927015 
408 2 0.000000 1 1.587532 23.2678411884 16.6383086129 1.16939927015 
409 1 3.000000 0 0.000000 27.687529572 14.4284644211 1.16939927015 
410 2 0.000000 1 0.370424 27.687529572 14.4284644211 1.16939927015 
411 2 0.000000 -1 0.370424 27.687529572 14.4284644211 1.16939927015 
412 1 3.000000 0 0.000000 29.8973737639 16.6383086129 1.16939927015 
413 2 0.000000 1 0.370424 29.8973737639 16.6383086129 1.16939927015 
414 2 0.000000 -1 0.370424 29.8973737639 16.6383086129 1.16939927015 
415 2 0.000000 1 1.587532 29.8973737639 14.4284644211 1.16939927015 
416 2 0.000000 -1 1.587532 27.687529572 16.6383086129 1.16939927015 
417 1 3.000000 0 0.000000 32.1072179557 14.4284644211 1.16939927015 
418 2 0.000000 1 0.370424 32.1072179557 14.4284644211 1.16939927015 
419 2 0.000000 -1 0.370424 32.1072179557 14.4284644211 1.16939927015 
420 1 3.000000 0 0.000000 34.3170621475 16.6383086129 1.16939927015 
421 2 0.000000 1 0.370424 34.3170621475 16.6383086129 1.16939927015 
422 2 0.000000 -1 0.370424 34.3170621475 16.6383086129 1.16939927015 
423 2 0.000000 1 1.587532 34.3170621475 14.4284644211 1.16939927015 
424 2 0.000000 -1 1.587532 32.1072179557 16.6383086129 1.16939927015 
425 1 3.000000 0 0.000000 36.5269063393 14.4284644211 1.16939927015 
426 2 0.000000 1 0.370424 36.5269063393 14.4284644211 1.16939927015 
427 2 0.000000 -1 0.370424 36.5269063393 14.4284644211 1.16939927015 
428 1 3.000000 0 0.000000 38.7367505312 16.6383086129 1.16939927015 
429 2 0.000000 1 0.370424 38.7367505312 16.6383086129 1.16939927015 
430 2 0.000000 -1 0.370424 38.7367505312 16.6383086129 1.16939927015 
431 2 0.000000 1 1.587532 38.7367505312 14.4284644211 1.16939927015 
432 2 0.000000 -1 1.587532 36.5269063393 16.6383086129 1.16939927015 
433 1 3.000000 0 0.000000 40.946594723 14.4284644211 1.16939927015 